# FfowcsWilliamsHawkings Acoustic Analogy
# Time           	microphones      	Size             1
